LAMMPS data file via write_data, version 23 Jun 2022, timestep = 243000

6912 atoms
1 atom types

-9.528468913382444 9.528468913382444 xlo xhi
-9.528468913382444 9.528468913382444 ylo yhi
-9.528468913382444 9.528468913382444 zlo zhi

Masses

1 1

Pair Coeffs # lj/cut

1 1 1

Atoms # atomic

6385 1 -8.93810608880811 -8.884067901943885 -9.017455278493353 0 0 1
543 1 -8.312797592545193 -8.073041481773224 -8.45924591784112 0 1 0
6332 1 -7.721707235032826 -8.857533285599784 -9.039272194701214 1 1 1
1787 1 -7.859572616067882 -8.547353708480694 -7.664430795188796 0 0 0
1717 1 -8.32173228928107 -9.309471940107256 -8.309664041353358 1 1 0
6857 1 -8.961146402977798 -8.702783514423457 -7.830059547940285 1 1 1
5154 1 -6.989706916303222 -8.921694054599905 -8.31453908390319 0 1 0
1298 1 -6.06938991268734 -8.49611572717492 -8.536333213388728 0 0 0
6832 1 -6.3807346142973955 9.352971628232371 -8.244340277528496 0 0 1
1406 1 -5.752993247743785 -9.088013352136736 -9.375758927925617 0 0 0
6200 1 -6.693506166062146 -8.546136298799748 -9.31429391464252 0 1 1
5667 1 -7.283179774091751 -7.8202641326411015 -8.1654206576415 0 1 1
3649 1 -7.598180070831942 -7.84441708831532 -9.408029214274608 0 0 1
1841 1 -6.5233847739376625 -8.317297244018702 -7.565365934251378 0 0 0
674 1 -4.937012054400278 -8.185447289828861 -8.70764897661009 0 0 0
584 1 -4.030394304848194 -8.728263685760902 -8.855153917585719 0 0 0
6428 1 -5.399838967948938 -9.177921509800933 -8.331488196119343 1 0 1
62 1 -5.561848381597452 -8.271939043639629 -7.709170619859064 0 0 0
693 1 -4.4654796091803615 -8.389537096134026 -7.7831243010264455 0 0 0
6304 1 -3.6924967436027227 9.292152980549531 -9.434299772313066 0 0 1
1270 1 -2.390727744065 -9.154118641603436 -8.006520463665026 0 0 0
2363 1 -2.2481382831980454 -8.47394187958102 -8.814675869152415 0 0 0
206 1 -3.480476890213091 -8.619143613950328 -8.07100705155544 0 0 0
151 1 -3.2575225750059333 -8.098843176285126 -9.388353541279072 0 0 0
1299 1 -3.031538996739031 -9.022882238841156 -9.081371320887568 0 0 0
1131 1 -1.9249146334924472 -9.450103772622196 -9.094161783654457 0 1 0
490 1 -1.966461088475337 -8.055742907559019 -7.8597045461044 0 1 0
438 1 -2.955074839078997 -7.862859514782808 -8.399205482192377 0 1 0
174 1 -1.4619641951858604 -7.893986103674296 -8.719645086678387 0 0 0
1080 1 -0.6069449468750108 -7.415249404095151 -8.644467560437343 0 1 0
1842 1 -1.4091597413957597 -8.989857961063219 -8.321164289304422 0 0 0
1231 1 -0.4306248612477539 -9.022075265292774 -8.06165127724409 0 0 0
586 1 -0.25134651916170725 -8.284712639439316 -8.823328172269237 0 0 0
587 1 -0.839254828113198 -7.966546849480212 -7.768262793768359 0 0 0
86 1 0.8687317197052096 -8.633882887665074 -8.709368504988856 0 0 0
6900 1 1.8554188030741425 -8.584933759236778 -8.620925733888193 0 1 1
6259 1 1.048021569735175 -7.568866720319846 -7.999965479967939 0 1 1
6848 1 0.42930928549943204 -9.16147854059916 -7.563228099226868 0 1 1
132 1 1.379190347513525 -7.783578789619462 -9.105156910836918 0 0 0
1121 1 0.2923809942097044 -8.13436449866433 -7.929651863681191 0 1 0
5279 1 1.3293082291280864 -8.554284125357201 -7.694302464130871 0 0 1
5789 1 0.3789129008092029 -8.170724248954267 9.429209136505698 0 0 0
1177 1 3.1043419398734393 -7.887183551629856 -8.037588164830265 0 0 0
2230 1 2.349122535691814 -9.000727553609794 -7.728101400137845 0 1 0
166 1 2.923711306157008 -8.797586189666115 -8.537588132717172 0 0 0
1256 1 2.043652662270473 -7.735554539213005 -7.948160667593246 0 0 0
6363 1 3.005670934013569 -6.943287952113499 -8.695583689126524 0 0 1
6895 1 3.902044611038489 -8.56241964299422 -8.724573206441033 0 1 1
6087 1 4.9424858138588235 -8.858793295405112 -9.232715122558226 0 1 1
4787 1 4.514106334048773 -9.208877725430806 -8.291457253628964 0 0 0
1624 1 5.595296519756227 -8.918433605693167 -8.212130542421502 0 1 0
1251 1 4.799324297620462 -8.184196342469974 -8.192352048073852 -1 0 0
1233 1 4.027426397168572 -9.32113603920392 -9.461533578627108 0 0 0
1198 1 3.591059609433948 -9.083256396548066 -7.718327924064948 0 0 0
2469 1 4.876259410995004 -8.768413725428793 -7.294497441504471 0 0 0
5783 1 7.358882358735194 -9.50392553872658 -8.094151120560936 0 0 1
4118 1 7.116892009015171 -8.850440244698635 -8.776872131108986 0 0 1
6364 1 6.879282154545084 -8.014576077393766 -9.43212337341623 0 0 1
3013 1 6.269544076064346 -8.013156727224388 -8.584760125594137 0 0 0
6822 1 7.876723608249357 -8.623871274860141 -9.470418248481696 -1 1 1
2353 1 7.747619239837277 -8.583365128423006 -8.058237514462874 -1 0 0
6189 1 7.437119598789817 9.305782874837824 -9.359427590879989 0 0 1
6223 1 6.608590992721773 -8.800210695189303 -7.834468169542742 0 1 1
510 1 9.29801616251353 -9.31823535556338 -8.302504262673361 0 1 0
1243 1 8.85732513781915 -9.511458895055846 -9.319873802919622 0 0 0
580 1 8.135416376474403 -9.419856509250616 -8.667016388763662 -1 0 0
1914 1 8.654171352450835 -8.48940902581261 -8.64773525865749 0 0 0
2322 1 -9.276266894466316 -7.999011493079774 -8.562070300817052 0 0 0
6577 1 8.903751675368593 -7.661539500697686 -9.157028422229912 -1 0 1
5812 1 -8.092601938551956 -7.399350740233452 -7.522539539048795 0 0 1
46 1 -9.264636229534002 -6.470024771485183 -7.498761660025854 1 0 0
1371 1 -8.035883216247427 -7.100484921492926 -8.72073660472613 1 0 0
2495 1 -8.573616640515588 -6.044506478747161 -8.376796023573625 1 0 0
5771 1 -7.974101337753819 -5.959170460051766 -9.135497002079033 0 0 1
6352 1 -7.482096040520768 -6.6684730137318855 -7.892126441604581 0 0 1
514 1 -7.062712787643179 -6.615530436480904 -8.914766206022849 1 1 0
585 1 -6.735467262392383 -5.680845026066729 -9.124265535009156 0 0 0
1939 1 -6.378531514390099 -6.149270413203999 -7.995275331980682 0 0 0
6339 1 -6.030437180941881 -6.563663356308774 -8.954351721468553 0 0 1
4673 1 -5.923680168749527 -7.400922681254851 -8.28115627204345 0 0 1
448 1 -6.674385759572822 -7.603945686364059 -9.00959969826543 0 1 0
1733 1 -6.761560053828626 -7.21684545055308 -7.51658269389724 0 0 0
19 1 -4.055551641293809 -7.457551317089532 -8.658268962980271 0 0 0
5614 1 -4.893424264989729 -7.456888145042558 -7.912023169616662 1 1 1
2291 1 -4.9675525623760475 -6.932061391132624 -8.814376077826616 1 1 0
1688 1 -4.215367653872087 -6.652244430031152 -8.084774257713018 0 1 0
1116 1 -5.3730408005755 -6.4805619508593315 -7.859760154233355 0 1 0
6250 1 -3.8315114542369555 -7.43158873142745 -7.6443606486109275 0 1 1
4040 1 -5.0418697878037095 -6.040529741258467 -9.21721013259483 0 0 1
2270 1 -3.8975838493072548 -6.162024641497182 -8.991915970841424 0 1 0
111 1 -2.1552013445623466 -7.346231126154246 -9.156711364386021 0 0 0
1752 1 -3.1427817168239107 -6.64512289409217 -8.363148414194818 0 0 0
4616 1 -2.590984090449914 -6.347497129120828 -9.133727780044643 0 0 1
5821 1 -2.1765044527693727 -7.073775749050445 -8.2118856229942 0 0 1
1938 1 -2.5373979259562383 -5.817473819402338 -8.270777575301484 0 0 0
6559 1 -1.975035607737829 -6.309866784560736 -7.551073530936373 0 0 1
2457 1 -0.9125461994773527 -6.116976036657162 -9.405545772887512 0 0 0
1272 1 -0.030616396964548542 -6.424512920144716 -8.78808088150783 0 0 0
5261 1 -1.4433186578695647 -6.717124413652632 -8.831916058184037 0 0 0
640 1 -0.4761993404370717 -6.96956721964494 9.41518336442737 0 0 -1
6501 1 -0.8597567044092216 -5.762684347185218 -8.384296640233801 0 0 1
3060 1 0.04727543976539117 -7.076238133648255 -7.938471915948436 0 0 0
5987 1 0.36561121518240647 -7.471005361726066 -8.886695082000655 0 0 1
6228 1 0.8555851273828718 -5.75919741579829 -8.781021245196394 0 1 1
651 1 1.1451399834214762 -6.801878552147947 -8.706251136139484 0 0 0
595 1 1.0490313925420534 -5.616329464782389 9.293114581610183 0 0 -1
6403 1 0.7368416707183307 -6.58579858789358 9.488633506844113 0 0 0
752 1 0.8631012924604349 -6.393854932521483 -7.763632503708396 0 0 0
2338 1 1.6571978958075917 -6.862908273436185 -7.418235471140593 0 0 0
560 1 2.172455740591465 -6.598584777494098 -8.195945339154656 0 1 0
1374 1 1.8411928638902388 -5.919955189817325 -9.107694472848134 0 0 0
5871 1 1.7033866570684744 -5.738936514614092 -8.046821545240098 0 0 1
1172 1 3.085604356100326 -5.980218159317318 -8.5622784849201 0 0 0
835 1 3.9899348080075736 -6.478003330234987 -8.805716523492354 0 0 0
3042 1 3.1125421023099804 -6.720690523846521 -7.774966136920315 0 0 0
831 1 4.554883034106956 -7.9041901445832 -9.167210908862799 0 0 0
707 1 3.976326654418111 -7.375179559997787 -8.342026312230848 0 0 0
1046 1 5.408846128905532 -7.346867724371082 -8.669339290552251 0 1 0
632 1 5.984118659580041 -6.4567174924737465 -8.669642622177422 -1 0 0
1959 1 4.975950161650411 -6.411595689772978 -8.524622909427036 0 0 0
2388 1 4.6300472538486925 -5.457345077030638 -8.14891709012328 0 0 0
617 1 4.091270614590446 -6.337814128102369 -7.779422802599575 0 0 0
1728 1 5.1819161305406904 -6.163560509037278 -7.4445066540141 0 1 0
1736 1 6.236585564961029 -7.106342310355274 -7.906751051493339 -1 0 0
2922 1 7.041676824317072 -7.77954114137937 -7.92579536935348 0 0 0
2340 1 6.944457902317254 -7.128180106941935 -8.804563338137024 0 0 0
1187 1 6.753764859045198 -6.196664835952989 -7.897474410193958 0 0 0
6479 1 7.435725037188501 -5.756762628914435 -8.642576078928233 0 0 1
5724 1 9.101968978406038 -7.228886216243518 -8.038029956811345 -1 1 1
92 1 -8.958987821193741 -7.048315845665693 -8.281108150949073 1 0 0
6470 1 7.631864504397054 -6.852714132659843 -8.170957723780912 0 0 1
143 1 7.798742602181246 -7.81507733989908 -8.829815493528008 0 0 0
1721 1 8.428399321311183 -6.894830809302915 -8.695393631880211 0 1 0
6851 1 8.862413144109393 -6.274891045287848 -7.905544439262479 0 1 1
93 1 9.351552130011285 -6.433380433213431 -8.948961800832343 0 0 0
811 1 -8.468149695089439 -4.970457699589417 -8.743058188375578 1 0 0
1684 1 -8.310651723184481 -4.780123376511472 -7.684678124681261 0 1 0
5909 1 9.470755225139587 -5.530820737589473 -8.461774836011312 -1 0 1
1631 1 9.443681055975329 -4.51442066820562 -7.789455289467553 0 0 0
869 1 -9.263006707558501 -4.3387829094188115 -8.76066809297413 0 0 0
4155 1 -7.546451369091653 -5.656500090889923 -8.185066838984628 0 0 0
289 1 -8.316362281443496 -3.8799471171759867 -8.485395439782206 0 0 0
4815 1 -8.964621236320086 -5.51693796738175 -7.505976238562829 0 0 1
4329 1 -6.069276621307733 -4.312286932145271 -8.59907599675892 0 0 0
678 1 -7.468047613218435 -4.4443114399029024 -8.41985903289882 0 0 0
6271 1 -5.883191512204959 -5.428778540627553 -8.633813312800754 0 1 1
750 1 -6.677237105340923 -5.132738693613534 -8.124677070664841 1 0 0
824 1 -4.687165561191614 -5.71300703079299 -8.340641102957965 0 0 0
10 1 -5.111953499256181 -4.727983122541273 -8.430218806414512 0 0 0
5876 1 -4.225155052869059 -5.26006520689167 -9.353985349941302 0 0 1
1553 1 -5.2429417752927945 -4.967238924339153 -9.44056571705857 0 0 0
3240 1 -3.8985854940965847 -4.5211165232863975 -8.337002938352882 0 0 0
6495 1 -4.59506871967681 -4.246545352509822 -9.45188879525437 0 0 1
6017 1 -3.0559519561305137 -4.866721038383556 -7.977357223928372 0 0 1
5837 1 -3.273234255001575 -5.3820114723662495 -8.952581404766548 0 0 1
1887 1 -2.5209648879113384 -4.744068233927847 -8.868130227527944 0 0 0
2024 1 -3.5986831197682037 -5.8221424146483765 -7.975115643800841 0 0 0
1216 1 -3.452498915084653 -4.425340161909317 -9.362301472515625 0 0 0
269 1 -0.25486787909011 -4.902864840984233 -8.20699802740159 0 0 0
6246 1 -1.7830927924291187 -5.653533251162338 -8.949217885062168 0 1 1
2376 1 -1.798556747741194 -5.301276730665258 -7.852413085383346 0 0 0
1133 1 -1.058839456894825 -4.810942926196065 -8.86286895845009 0 0 0
3820 1 -2.4528534006848535 -3.7311862487574876 -9.391904217189758 0 0 1
173 1 -2.017455046755675 -3.9860818047673217 -8.37045835258153 0 0 0
1850 1 -1.019020650811786 -4.309967038782173 -7.680907030818919 0 0 0
6411 1 -0.016130493430452475 -4.315997984007229 -9.169902076864163 0 0 1
1134 1 -0.1193926642106824 -5.483667610283489 -9.21064409817639 0 1 0
2942 1 -0.05950501883965309 -3.922604547715899 -8.10595062006146 0 0 0
5310 1 0.7174398690029946 -4.774996436963915 -8.698635151196703 0 0 1
5834 1 1.564111183647027 -4.55265430224221 -8.150608913443946 0 0 1
6505 1 0.7853333991294402 -5.300663737933926 -7.837532159377338 0 0 1
4820 1 0.8430573295471007 -3.7505329571071675 -8.570223242701665 0 0 1
6022 1 0.9944441649055094 -4.159382801169808 9.520315613176319 0 0 0
268 1 0.7819480631900557 -4.145698809225349 -7.686281657546356 0 0 0
6447 1 1.6743498790931923 -4.851076772468086 -9.253419425282322 0 0 1
5360 1 2.5088002318093867 -5.038321747518475 -8.496695194842584 0 0 1
6399 1 3.435911492060505 -4.582160251799944 -8.39314603603999 0 0 1
1144 1 2.543028997878901 -4.033254037268499 -8.022059498447504 0 1 0
662 1 2.7347485846584583 -4.467519556854117 -9.274770108600924 0 0 0
1818 1 3.848476808686142 -5.201467074359009 -9.048431224978179 0 0 0
1718 1 3.6099019994712123 -5.467127574367401 -7.859729413805963 0 1 0
165 1 1.9002022556665032 -3.869610370596229 -8.847333545534953 0 0 0
1620 1 5.846932311630821 -5.633295249487389 -8.00418835221815 0 1 0
1809 1 4.489259713767293 -4.432841806612812 -8.469526415228243 0 0 0
1854 1 4.719210105146583 -4.6514145764263395 -9.484914241813 0 0 0
5778 1 5.454396169802292 -5.128481529906838 -8.859237738397795 0 0 1
625 1 5.305563191240807 -4.1372921193178005 -8.86860001619289 -1 0 0
1280 1 5.176750255298668 -4.81185500776941 -7.545752519945681 0 0 0
2012 1 6.5491596921829895 -5.238722247003942 -8.830834690951281 0 0 0
187 1 6.142325424584719 -4.631335576490045 -8.098236342169795 0 0 0
1859 1 7.0323217183999205 -4.3628732653225875 -8.7600890216905 0 0 0
3695 1 7.132765013256449 -5.034564866114193 -8.043734383054126 0 0 1
140 1 6.820830787679974 -3.5785170460601456 -7.732977298953499 0 0 0
6368 1 6.19290755818729 -4.317325442619886 -9.443023031986954 0 0 1
667 1 8.439726555573351 -5.791338871755167 -8.885255324653192 0 0 0
5877 1 7.980410835447632 -3.9448346280395468 -8.287769133482644 0 0 1
231 1 9.051754532585075 -4.914956992525597 -9.206944216123768 0 0 0
40 1 8.498609533621966 -4.8350651886516225 -8.118752549546222 0 0 0
1390 1 8.092466735403235 -4.62244096235314 -9.01128305505423 0 0 0
821 1 8.842202558607603 -3.9799776305246635 -8.83019418199253 -1 0 0
1441 1 -7.963448485352691 -2.8542406735759585 -7.727878499322181 0 0 0
862 1 -8.912545745465204 -3.4976240402183727 -9.398713984749698 1 0 0
6622 1 -9.215589484019498 -2.210850738096905 -7.98581152687225 1 0 1
757 1 -9.352984314429094 -2.2798920368380697 -9.190334892131107 1 0 0
101 1 -9.405205754661234 -3.4330071432595783 -8.08286119256302 0 0 0
5322 1 9.050501025447833 -3.2525310251663777 -9.494583297291747 0 0 1
6538 1 -7.676554840519305 -2.0316478996833487 -9.219346542904342 0 0 1
1394 1 -7.344765212751572 -3.468895756740099 -8.220231443311958 0 0 0
818 1 -8.64592049084333 -2.804032446838688 -8.670293958416108 0 0 0
245 1 -6.8801508272908505 -2.6013588059596513 -7.6399827939269 0 0 0
4052 1 -5.8656724236231 -3.2069063970242464 -9.20946783419699 0 0 1
5331 1 -7.819931283955168 -3.1981757691898025 -9.134228217880203 0 0 1
723 1 -6.863665463108821 -2.581754076256077 -8.714569400738114 0 0 0
795 1 -5.922756048564647 -2.198661871400983 -8.620355518990534 0 0 0
4308 1 -6.021549138586266 -3.3204958283633346 -8.17857390518702 0 0 1
1257 1 -5.1462384651375155 -3.8081460780501235 -8.757454082345571 0 0 0
713 1 -5.138428303167496 -2.792764355329285 -8.407318869380692 1 0 0
43 1 -4.6280121359938375 -3.9201101151941486 -7.792549298888168 1 0 0
257 1 -4.213369070360551 -2.4825076534180015 -9.11373873256487 0 0 0
1207 1 -5.2492751615229665 -2.490418441358705 -9.42058966133896 0 0 0
6838 1 -4.060850211045093 -3.474733550643082 -8.608698557889225 0 1 1
1407 1 -3.078655191296561 -3.689256555459469 -8.575530521997207 0 0 0
2129 1 -3.438908835476636 -2.7561941452471297 -8.237925898845063 0 0 0
353 1 -2.579680050182928 -3.176944377458142 -7.747623805499413 0 0 0
5881 1 -2.5014512780571003 -2.900601757845336 -8.762655867388668 0 0 1
122 1 -2.247054169127625 -2.0485656169930957 -9.277637957348183 0 0 0
927 1 -3.172862370804709 -1.9102655320733488 -8.561511377905203 0 0 0
6727 1 -1.5486983294089418 -3.036977500892065 -9.270624743308922 0 1 1
6441 1 -0.9944777549344757 -3.756366919463317 -8.68653134421122 0 0 1
890 1 -0.6945334320472476 -2.6596869779727905 -8.789631593489263 0 0 0
1306 1 -1.5485419558441977 -3.044063690501778 -8.236202508707509 0 0 0
1565 1 -0.4574742329916788 -1.9855883225281001 -7.993702508948086 0 0 0
3195 1 -1.3893250638956385 -2.0314147591972755 -8.476759106544415 0 0 0
5366 1 -0.6944388600783107 -3.3853936503260496 9.348460860403652 0 0 0
1326 1 -1.2041980577257494 -1.9249623179332778 9.501651961956965 0 0 -1
5962 1 0.13986276936254427 -3.2135285514103247 -9.20013966166028 0 0 1
2283 1 0.26395157258129487 -2.783921705626846 -8.226596395727569 0 1 0
2142 1 0.6624186472022799 -2.352916077651341 -9.469947501743745 0 0 0
5243 1 1.1787290993394528 -2.7903534510580617 -8.668350257612467 0 0 1
880 1 0.5861267874735194 -2.048446876506727 -7.437708827637799 0 0 0
6795 1 1.5937264601629177 -2.323091667840724 -7.931047576685009 0 0 1
1570 1 1.6523717081075695 -3.4177659623674304 -7.964023463348989 0 0 0
1951 1 0.860147846925436 -1.8633976574767894 -8.54043104372256 0 0 0
566 1 2.9884885071281193 -3.606983007608097 -8.782757357128572 0 1 0
2031 1 2.23266393163037 -2.7066065657022618 -8.649191281136487 0 0 0
6509 1 3.3209911403496424 -2.4972228516625803 -8.357416322248646 0 0 1
124 1 2.6979926998330583 -3.0110108323540263 -7.739029514350342 0 0 0
4339 1 3.5414144173056936 -3.6716780610330915 -7.676693206664889 0 0 0
5794 1 3.7307850667319773 -4.136126962400093 -9.314523540469231 0 0 1
5928 1 2.3436911003229906 -3.220295383820245 9.470465906175836 0 0 0
48 1 4.1789355489553905 -2.7386185079097087 -7.901053279084016 0 0 0
2520 1 4.155558807413069 -2.4109832001188876 -9.239973278767541 0 0 0
4502 1 4.036496381897493 -3.467792072103639 -8.614023119148737 0 1 1
827 1 5.109877344640944 -1.9061903032407805 -8.09006883009203 0 0 0
5351 1 4.579683692320987 -3.5467948121024166 -9.456292704932464 0 0 1
2204 1 5.084061887775947 -2.2208036420225055 -9.179568464753356 0 0 0
6181 1 5.039771922011784 -3.145333210809042 -8.537755155633597 0 0 1
1372 1 4.0574469941809586 -1.8409595165466426 -8.324427106099824 0 0 0
1926 1 5.702255107736326 -3.8256231285654634 -7.6717456110279 -1 0 0
6477 1 6.202828750799261 -3.684355885383951 -8.566378889190855 0 0 1
234 1 6.951032141930497 -2.473505323323991 -7.7792222487759535 0 0 0
1944 1 6.863998037420252 -3.5416799618353245 -9.332866776109082 0 0 0
6651 1 6.193240120783159 -2.55729500022483 -8.932834884655914 0 0 1
6053 1 6.031488230041884 -2.899802294100687 -7.951430281942131 -1 0 1
4218 1 6.92893269095233 -1.7713069363133487 -8.663062663579934 0 0 1
5865 1 5.638797458957129 -3.28661093350219 -9.487200980968305 -1 0 1
1978 1 7.434401223540256 -3.2041901430946336 -8.492835589497018 -1 0 0
810 1 8.73835671039631 -3.589256258836598 -7.708929650565979 0 0 0
673 1 8.468539170675143 -3.019591821435018 -8.464238593196074 -1 0 0
6372 1 7.876602838315076 -2.1171224412666367 -8.336004415391658 0 0 1
1336 1 7.295371528243482 -2.5749953389864153 -9.224695306464655 0 0 0
6476 1 8.893200943653959 -2.065331426294363 -8.487573827465551 0 0 1
3124 1 8.02481433377445 -3.372094174049229 9.522837210351206 -1 0 0
6613 1 8.485979132603877 -2.467069330091946 -9.407531015410816 0 0 1
6437 1 -8.399813269897551 -1.774854727380335 -8.416225492892671 0 0 1
386 1 -8.600917348043158 -0.5461211664198959 -8.63049719357613 0 0 0
389 1 9.448927268836776 -1.143748004910334 -8.494412013440598 -1 0 0
3763 1 -7.762034492282869 -0.8876446430075546 -7.892865020727182 0 0 0
1295 1 -7.722072430682171 -1.0871556996381706 -8.876147485130534 1 0 0
6563 1 -9.273295429182042 -0.6627457313203102 -9.508574642060506 1 0 1
638 1 9.290600895593595 -1.5390451937290939 9.326739677126852 -1 0 -1
2037 1 -6.373211301845252 -1.6403413055634148 -7.772241423869737 0 0 0
4359 1 -7.333051279146044 -1.819678298467271 -8.243452497539758 1 0 1
2587 1 -6.789348793425652 -1.566471995934723 -9.05709546579094 1 0 0
2132 1 -6.716680844428675 -0.6756459569903033 -8.528844794970178 0 0 0
2505 1 -5.83377106203171 -1.1552759113114845 -8.560170409198731 0 0 0
5357 1 -4.079258790405976 -1.2889146229783766 -8.960133020267312 0 0 1
2564 1 -4.188291439445685 -1.9595241753125947 -8.233421427142964 0 0 0
3193 1 -4.669982792888254 -0.779099696380456 -8.196604506369617 0 0 0
2645 1 -5.783193761260728 -0.4514695848525978 -9.241760225938508 0 0 0
6692 1 -3.783996348552712 -0.0820215760055234 -8.4761162686841 0 0 1
65 1 -5.692400129849071 -0.15344218621125627 -8.14491532820783 0 0 0
6482 1 -5.018954406282628 -1.6800532503997303 -8.998750208678297 0 0 1
2528 1 -2.247083817648922 -2.2825877042961817 -8.068922075198081 0 0 0
1425 1 -2.73563544687529 -0.48360825234912674 -8.772145117871244 0 0 0
933 1 -3.5778963130221966 -0.9931060874858808 -8.0431913614313 0 0 0
6562 1 -2.1108609343462827 -1.315428037992742 -8.604121175813807 0 0 1
5054 1 -2.5868425159791686 -0.8337154933383228 -7.8284069978287745 0 0 1
4879 1 -3.1208255522957016 0.03805918383487317 -7.54047495685339 0 0 1
885 1 -2.967731802618676 -1.3200185674886828 -9.461138825745323 0 0 0
509 1 -0.16758796608853643 -1.7818158950685223 -8.916806609694941 0 0 0
1501 1 -0.8026123538660794 -1.1218514073722332 -8.511386281873545 0 0 0
1941 1 -0.5774395846889231 -0.47553789402111235 -7.533485305939265 0 0 0
263 1 -0.8236697766019123 -0.21582970095587228 -8.976913136454172 0 0 0
902 1 -1.635867441738581 -0.4310026025567364 -7.910180237694126 0 0 0
251 1 -1.3076782181998592 -1.4804667998932501 -7.572528877508905 0 0 0
668 1 -1.523610845745118 -0.8331842538372936 -9.268276885461509 0 0 0
161 1 -0.4544802101124876 -1.0030371544530663 9.469387709305504 0 0 -1
2713 1 0.4859136607448722 -0.9105723779184736 -9.056785104019252 0 0 0
741 1 1.1996805014026002 -1.437106646668747 9.480243330076897 0 0 -1
512 1 0.1332964366791316 -1.0362989019356537 -7.99717851396385 0 0 0
5641 1 1.4712046639671836 -0.447229059557257 -8.449349582703276 0 0 1
5500 1 1.430153267064041 -1.364527599058576 -7.900278329754067 0 0 1
1358 1 1.6221782572470058 -0.4975350892898014 -9.465611060968085 0 0 0
751 1 1.8558007356157873 -1.739676912547485 -8.776688271731729 0 0 0
5355 1 2.3460540392752343 -0.8940514156530064 -8.89548039585135 0 0 1
1563 1 3.3438404081138646 -1.1145858592269775 -8.49013307069458 0 0 0
4847 1 2.4290956333654137 -0.7035971974465003 -7.87080563325045 0 0 1
2563 1 2.5556203538147333 -1.7493290617997248 -8.059177089351145 0 0 0
360 1 2.974342555940588 -1.8405160427898188 -9.19672638950479 0 0 0
303 1 3.3753122314931687 -0.22413287948769423 -9.24367122610278 0 0 0
2481 1 3.4347544920668405 -0.5830703037940008 -7.574595474516048 0 0 0
1414 1 4.7631363578392385 -1.3119531549576848 -8.929679794523475 0 0 0
1095 1 4.154360995384783 -0.39473272340843124 -8.671165499765214 0 0 0
670 1 5.123541972700931 -0.08766567886128662 -8.42398854063808 0 0 0
2821 1 5.54555375527719 -0.9383348165246996 -8.05972583445999 0 0 0
192 1 5.0105718488451885 -0.47576334282719834 9.39188779906592 0 0 -1
739 1 3.895877234082988 -1.2893512034626031 -9.412033444900338 0 0 0
6516 1 6.0378534011750915 -1.773579433659287 -7.71530677708489 0 0 1
609 1 5.994937804208131 -0.3635372753358066 -8.825783216161634 0 0 0
1908 1 6.555920242578274 -0.9523938607618874 -8.177004395161587 0 0 0
41 1 6.873064396705811 -0.8243235931114761 -9.218079891362429 0 0 0
6142 1 5.843039276492675 -1.5225460661102854 -8.842716592125644 0 0 1
1480 1 8.95762950690937 -0.10449919803849461 -8.682166797832114 0 0 0
6025 1 7.9928447253703965 -0.11700183023388888 -8.028352192822961 0 0 1
3884 1 7.5323664489962745 -0.970156944604005 -8.22107780858539 0 0 1
6458 1 7.7603464117085394 -1.5636686965016322 -9.27881023467508 0 0 1
5061 1 8.51747608995138 -1.1990169746285364 -8.059235811765838 -1 0 1
4949 1 8.663575186870286 -1.0483203149050304 -9.076670558562881 -1 0 1
3191 1 7.7547653267233265 -0.47186956210396147 -9.117611443528842 0 0 0
1383 1 -9.067355600774775 0.25735145118017755 -9.171989699425213 1 0 0
2125 1 -9.079856914237578 1.3028352580411617 -8.692575104754944 0 0 0
1552 1 -8.261213757525208 0.5192912622441526 -8.438713880949388 0 0 0
6510 1 -9.188258850812305 0.621780779673136 -7.903168724873097 1 0 1
3956 1 -8.629137501515974 1.5667611071870429 -7.78693498087065 0 0 0
2112 1 -8.10005758375841 -0.2513778477605815 -9.486761127385996 1 0 0
2773 1 -7.49822945456669 -0.03632968361147704 -8.424841351317811 1 0 0
446 1 -7.6425391346684215 1.9417979801538312 9.263855642925375 0 0 -1
1432 1 -6.4003187281639935 0.4952861939244553 -8.913637285973605 1 0 0
1545 1 -7.215621339564733 0.18514095018595178 -9.433431686263448 0 0 0
5519 1 -6.661745921860639 0.30817210714646137 -7.841982968772456 1 0 1
2178 1 -6.54337056700178 1.3595587344623858 -8.32090305327484 0 0 0
2618 1 -7.3698215958243125 0.9853833052171499 -8.69777577249898 0 0 0
1491 1 -6.69353504347114 1.3316039720161026 -9.521441872864981 0 0 0
1731 1 -7.569211133543005 1.9752115394267893 -7.8861975048088775 0 -1 0
6077 1 -4.932987748625481 0.20698367090472836 -8.879850931467104 0 0 1
2516 1 -4.763509940213587 0.2006777009759908 -7.869837381296136 0 0 0
1470 1 -5.497676960348302 1.1468532949059806 -8.681605644290007 0 0 0
1999 1 -4.931672427077354 1.4141452237146304 -7.803824665727683 0 0 0
5010 1 -4.681599833958815 1.1696853893084143 -9.320474186109035 0 0 1
1511 1 -3.6046785075290844 0.6943874034172186 -9.142907539786782 0 0 0
2775 1 -4.109441819916499 0.9423160387452008 -8.170702755153572 0 0 0
3898 1 -6.070106129752371 2.0277312088862036 -9.129998714898594 0 0 1
836 1 -2.16943496248527 0.5230806585354539 -7.67536435438362 0 0 0
401 1 -2.744521552693511 0.5551360841588941 -8.474758318175269 0 0 0
5504 1 -3.210139760828018 1.498020912129837 -8.538295945772044 0 0 1
1353 1 -2.223769990431152 1.5121009372306187 -8.010108586357749 0 0 0
1505 1 -2.0088587826251327 1.1643206518582083 -9.020151079425284 0 0 0
6067 1 -1.8733955928998247 0.12059085763826616 -8.829291056143033 0 0 1
4358 1 -2.7004891913519025 0.6134949906733116 9.506793271227405 0 0 0
356 1 -1.0158905269947471 0.34272031605057407 -8.106203435745698 0 0 0
6594 1 -1.0493442256118897 0.7647449610332782 -9.083203043257617 0 0 1
449 1 -0.47404942769495584 1.9335863265589133 -7.8131573028274826 0 0 0
6797 1 -1.2347645848892093 1.6985082981582593 -8.594899455684292 0 0 1
456 1 -0.2995711443519582 1.0706627834471973 -8.380036461706839 0 0 0
6588 1 -1.3305624236766587 1.1981274780899138 -7.664374599210196 0 0 1
4639 1 -0.09724008601862977 0.5692587294440958 -9.365011680661977 0 -1 1
5024 1 0.2534815660547487 0.25332793666088627 -7.978640724923322 0 0 1
5841 1 0.6194441471031151 1.138651896357107 -8.864752963755237 0 0 1
6840 1 1.612701391672596 0.8483851734897012 -8.285744544727708 0 0 1
845 1 0.6316675731464478 1.4280935279438474 -7.774432163984955 0 0 0
5981 1 0.8004659866113677 0.12722235529181525 -9.075884768455165 0 0 1
1235 1 1.627470659955721 1.553561127590081 -9.127276228907828 0 -1 0
720 1 3.2346996041431524 0.16752638469179004 -8.279487516122131 0 0 0
6225 1 2.2978511946332514 0.1319588345239353 -8.698251580563987 0 0 1
318 1 2.49032924874869 0.6729196692947088 -7.76766986321401 0 0 0
1200 1 3.3484929763214364 1.2392093953956156 -8.12956085674223 0 0 0
317 1 2.470254347451034 1.1538658264241892 -8.665471719774551 0 0 0
219 1 3.375432857901057 0.7574192467371823 -9.284704999065356 0 0 0
6620 1 2.486318049238486 1.8254865633447395 -7.8513279026855205 0 0 1
1473 1 3.1514036749259144 1.7596099850078737 -9.039132312414475 0 0 0
6104 1 4.308576690602134 1.7023477905603261 -8.265603997433171 -1 0 1
6068 1 4.079634701680012 0.6438225042914993 -8.487352776161101 0 0 1
1093 1 5.030803749776913 1.0096199311612324 -8.67541798517014 0 0 0
5701 1 4.163945974166573 1.4526413517037788 -9.342967324564675 0 0 1
1517 1 5.424243532171072 1.8214179172414493 -8.125547918159342 0 0 0
759 1 5.440417753317348 0.37662996112097424 -9.391828653953779 0 0 0
5362 1 7.009547250936976 -0.0022054969916869283 -8.558079136934783 0 0 1
1384 1 7.109380616945227 0.963882329860418 -8.623306965812867 0 0 0
2048 1 6.008424791268041 0.7298853053649701 -8.471218145791834 0 0 0
896 1 5.924881968015768 1.2658081669055044 -9.340430996387296 0 0 0
1483 1 7.163398132280943 0.6842770418594313 -7.599059008083108 0 0 0
1426 1 6.402455700401475 1.4073434692881008 -7.663910996235442 0 0 0
422 1 8.775273271655028 0.5350052040114992 -7.936837145539538 0 0 0
1514 1 8.104697958697084 0.5389277104110661 -8.856341788894136 0 0 0
3746 1 9.101435532394198 0.8520812749366851 -8.849821913245085 -1 0 0
3070 1 8.284817353826703 1.5594635841364966 -8.474958959589099 0 0 0
3345 1 8.442209148018673 1.1429905118921369 9.417311519632552 0 0 -1
1534 1 9.298149532681105 1.4903025316858045 -7.638917964205198 0 0 0
5615 1 -8.249838355723798 1.8188870893886193 -8.744152579031505 1 0 1
2747 1 -9.110788854246076 2.630533098885369 -8.790101154096506 0 0 0
2275 1 -8.329910889713489 2.66579095889489 -8.084283030919146 0 0 0
6241 1 -8.91351407542967 1.9200366053998916 -9.505760123304087 0 0 1
2080 1 -8.204284730694715 2.776415953352858 -9.184756124928686 0 0 0
1677 1 -9.07686446776271 3.438645060147598 -8.122353422803977 1 0 0
973 1 -9.02681940433589 3.57456661930941 -9.28193408413012 0 0 0
394 1 -8.185607672518659 3.754226216050391 -8.736128868894244 0 0 0
432 1 -9.295793357577507 2.529714667393158 -7.746611455406679 1 0 0
1716 1 -6.632695604241206 2.5715770142704084 -7.81004117543309 1 1 0
1594 1 -7.3663498972448656 3.0488491541486606 -8.318610241940998 0 0 0
6643 1 -7.106944491111044 2.1070121834389504 -8.822812771951126 0 0 1
2700 1 -6.475051057460053 2.9745940561406723 -8.768144851062104 0 0 0
6806 1 -6.281047675230033 3.317212094476057 9.354090503504548 1 0 0
6530 1 -7.237660688635231 3.2058719227881642 -9.394362536327447 0 0 1
280 1 -6.070821894366796 3.87977916358734 -8.422898950001965 1 0 0
428 1 -6.7595861571868125 2.4122716524043337 9.237449511459833 1 0 -1